LIGGGHTS data file

22307 atoms

3 atom types

-0.075  0.075 xlo xhi
-0.01  0.06      ylo yhi
-0.075  0.075 zlo zhi

Atoms

1   1   0.00282908   2900   0.0125028   0.0217528    -0.0684431
2   1   0.00256768   2900   0.0147806   0.0144106    -0.0681159
3   1   0.00268851   2900   0.00163615   0.0342259    -0.0614518
4   1   0.00244707   2900   -0.0304485   0.0116285    0.0525988
5   1   0.00215087   2900   0.0528955   0.0398171    0.0203465
6   1   0.00294429   2900   -0.041893   0.0241997    0.0334751
7   1   0.00293921   2900   0.0558515   0.0422834    0.0179392
8   1   0.00212966   2900   0.0403389   0.010249    0.0430891
9   1   0.00287043   2900   -0.016388   0.00635256    -0.0504893
10   1   0.00273817   2900   -0.00229963   0.0288031    0.0532627
11   1   0.00244199   2900   0.0104845   0.00924244    0.0526276
12   1   0.00269609   2900   -0.0266822   0.0348278    -0.0534834
13   1   0.00227187   2900   0.0373935   0.0350022    0.0415802
14   1   0.00234965   2900   0.0211015   0.0225121    0.0638913
15   1   0.00205462   2900   -0.0595049   0.00932581    0.00390045
16   1   0.00238163   2900   0.0523434   0.0423857    -0.0214174
17   1   0.00280035   2900   0.0149326   0.0336518    0.0522513
18   1   0.00212995   2900   -0.0522926   0.0407672    -0.0123327
19   1   0.00297984   2900   0.0331214   0.0149066    0.0394523
20   1   0.00258378   2900   -0.0440001   0.010702    0.0263422
21   1   0.00224932   2900   0.0144937   0.0423884    -0.0683337
22   1   0.00252526   2900   -0.0515909   0.0196761    0.0293526
23   1   0.00217094   2900   0.0552274   0.0327442    -0.0232664
24   1   0.00295781   2900   0.0552892   0.0147999    0.0167385
25   1   0.00274966   2900   0.0519324   0.0429995    0.0140678
26   1   0.00217681   2900   0.0456274   0.00868549    -0.0229852
27   1   0.00291387   2900   0.0691081   0.0146787    0.0076344
28   1   0.00204884   2900   -0.04447   0.0198538    -0.0353638
29   1   0.00208553   2900   -0.0325774   0.0415233    0.0558952
30   1   0.00205905   2900   -0.046126   0.0314986    0.0401929
31   1   0.00284798   2900   -0.0460253   0.031457    0.0487807
32   1   0.00250299   2900   -0.0369049   0.0281812    -0.0440914
33   1   0.00224848   2900   -0.0424818   0.024741    -0.0371657
34   1   0.00277547   2900   0.0572799   0.0193051    -0.0145623
35   1   0.00282098   2900   -0.0456384   0.0281847    0.0525187
36   1   0.00212114   2900   0.0593808   0.0351192    0.0369295
37   1   0.00265867   2900   0.0212957   0.0295123    0.0480376
38   1   0.0025945   2900   -0.0601288   0.0207509    -0.0147308
39   1   0.00231075   2900   0.0413113   0.00730789    -0.0325355
40   1   0.00237164   2900   0.036931   0.0389378    0.0395891
41   1   0.0026619   2900   0.0541329   0.005342    0.00705699
42   1   0.00241646   2900   -0.0125901   0.0447918    0.0524818
43   1   0.00236888   2900   -0.0114062   0.023515    -0.0537803
44   1   0.00236064   2900   -0.0508977   0.0138128    -0.0136035
45   1   0.00295532   2900   -0.0103343   0.0336957    0.0529861
46   1   0.00298237   2900   0.0188114   0.0319652    -0.0500175
47   1   0.00221048   2900   0.0548597   0.0218585    0.00147365
48   1   0.00205093   2900   0.0392565   0.0137532    -0.0412919
49   1   0.00226107   2900   0.0475674   0.039687    -0.0417015
50   1   0.00255523   2900   -0.0491478   0.0429449    0.0191358
51   1   0.00274073   2900   0.0140068   0.0296709    0.0531857
52   1   0.00279054   2900   -0.0609739   0.0105435    -0.0114619
53   1   0.00241552   2900   -0.0504724   0.0302885    0.00855969
54   1   0.00225008   2900   0.0690496   0.01871    0.0105859
55   1   0.0022248   2900   -0.0371284   0.0210059    -0.0547118
56   1   0.00273898   2900   0.0613329   0.0414692    -0.0192985
57   1   0.002154   2900   -0.0277364   0.0374928    -0.0640478
58   1   0.002349   2900   0.00156155   0.0227747    0.0581174
59   1   0.00229181   2900   -0.0510937   0.0311094    0.0021087
60   1   0.00298351   2900   0.0648729   0.0434362    -0.00643563
61   1   0.00245959   2900   -0.0131855   0.0398627    0.0588822
62   1   0.0029583   2900   0.0256874   0.0232302    0.0645929
63   1   0.00223389   2900   0.0540981   0.0314069    -0.0442114
64   1   0.00245382   2900   -0.0536121   0.010249    0.0421972
65   1   0.00204882   2900   0.0580188   0.0167574    0.0391049
66   1   0.00254202   2900   -0.048841   0.00894482    -0.0179844
67   1   0.00267461   2900   0.0168893   0.0397347    0.060923
68   1   0.00299545   2900   0.0573138   0.0240997    -0.0393066
69   1   0.00230709   2900   -0.0613318   0.022216    -0.0205651
70   1   0.00291757   2900   0.0389383   0.0134844    0.0465449
71   1   0.00242347   2900   0.0539648   0.0249766    -0.0172179
72   1   0.00266542   2900   0.023541   0.0446676    0.0578693
73   1   0.00261351   2900   -0.0489213   0.00807392    0.0234672
74   1   0.00294571   2900   0.0514499   0.0135921    0.0323273
75   1   0.00259689   2900   0.0551928   0.0317226    0.00527344
76   1   0.00270603   2900   -0.05461   0.0127637    0.0318992
77   1   0.00283017   2900   0.0238057   0.0185301    0.0580182
78   1   0.00223202   2900   0.0534527   0.0194762    0.0238575
79   1   0.00259389   2900   0.0590247   0.0404473    -0.00256031
80   1   0.00213744   2900   -0.051014   0.00506863    0.00220345
81   1   0.00245541   2900   0.0549931   0.0189644    -0.0126647
82   1   0.00228864   2900   -0.05269   0.0260534    0.0334846
83   1   0.00282742   2900   -0.054077   0.0241956    -0.0129367
84   1   0.0029604   2900   0.000972098   0.00551361    -0.0667378
85   1   0.0026416   2900   -0.0473063   0.00975665    0.0296111
86   1   0.00279625   2900   -0.0339154   0.0208938    -0.048353
87   1   0.00252813   2900   0.0597262   0.0166789    -0.0294874
88   1   0.00230908   2900   -0.019037   0.0284071    0.0653513
89   1   0.00214809   2900   0.0241792   0.0123038    -0.0582817
90   1   0.00211199   2900   0.0558202   0.00825804    0.010859
91   1   0.00200799   2900   0.0189175   0.0255804    0.0663494
92   1   0.00218598   2900   -0.0497593   0.0262924    -0.0242281
93   1   0.0027981   2900   -0.0426068   0.0424315    -0.0434159
94   1   0.0026208   2900   0.0615261   0.0196093    0.0207037
95   1   0.00222176   2900   -0.00351335   0.0346386    -0.0564177
96   1   0.00206363   2900   0.0390059   0.032147    0.0492656
97   1   0.0022619   2900   -0.0522064   0.0397986    0.00707324
98   1   0.00203252   2900   -0.0411172   0.0209554    -0.0337067
99   1   0.0022206   2900   0.054128   0.0360051    0.0263024
100   1   0.00279712   2900   0.0118157   0.0427027    -0.0621454
101   1   0.00252183   2900   0.0662565   0.0194514    0.010982
102   1   0.00295585   2900   -0.0522017   0.0422109    -0.0194494
103   1   0.00229618   2900   0.0187513   0.0200495    -0.0659576
104   1   0.00264199   2900   0.05814   0.0108632    0.00844378
105   1   0.00223943   2900   0.0465312   0.0328338    -0.0308825
106   1   0.00293139   2900   0.0351468   0.0212629    -0.0410275
107   1   0.00235478   2900   -0.00159053   0.037332    0.0534187
108   1   0.00229039   2900   -0.00589128   0.0389032    -0.069592
109   1   0.00285974   2900   -0.0537163   0.0168581    0.0049424
110   1   0.00265057   2900   0.0514843   0.0446747    -0.0469266
111   1   0.0026   2900   0.0248159   0.0224962    0.0499243
112   1   0.00284185   2900   -0.0414405   0.0421587    -0.0408491
113   1   0.00276767   2900   -0.0194634   0.0406187    -0.0598846
114   1   0.00219935   2900   -0.00379051   0.00509963    -0.0672607
115   1   0.00221489   2900   -0.0506827   0.0448926    -0.0155404
116   1   0.00230022   2900   -0.0433664   0.0280544    -0.0419809
117   1   0.00275587   2900   0.0600841   0.0163906    0.0351313
118   1   0.00273428   2900   -0.0102095   0.0432261    0.0627496
119   1   0.00254064   2900   0.0598929   0.0253752    -0.0238997
120   1   0.00264022   2900   0.0369661   0.0343908    -0.0355779
121   1   0.00251178   2900   -0.00853324   0.027801    -0.0564418
122   1   0.00250569   2900   -0.0454904   0.0447471    0.0406449
123   1   0.00225088   2900   0.0591849   0.0204853    -0.0128962
124   1   0.00201989   2900   0.0259271   0.0295722    -0.0650011
125   1   0.00248364   2900   0.0444572   0.036359    0.0317087
126   1   0.00208487   2900   0.0676748   0.0139754    -0.00509507
127   1   0.00263946   2900   -0.0200167   0.0382317    -0.0610266
128   1   0.00271328   2900   0.0570896   0.0319354    -0.031664
129   1   0.00281855   2900   -0.0111685   0.0419451    0.0650187
130   1   0.00204558   2900   -0.0617757   0.0393593    -0.00283131
131   1   0.002194   2900   -0.0591548   0.0286273    0.0320552
132   1   0.00247534   2900   0.0321374   0.0339742    0.0468048
133   1   0.00211745   2900   -0.0409089   0.0301679    0.0381488
134   1   0.00293645   2900   -0.0527354   0.0235714    0.00655177
135   1   0.00233032   2900   -0.0592095   0.028292    -0.022952
136   1   0.0029048   2900   0.0516215   0.00974388    0.0150448
137   1   0.00294179   2900   0.0584291   0.0209327    -0.0323897
138   1   0.00290727   2900   -0.0513934   0.030876    -0.0415738
139   1   0.00235953   2900   -0.0202427   0.0417676    -0.0646521
140   1   0.00266455   2900   -0.0683889   0.0293905    -0.00776108
141   1   0.00297378   2900   -0.0504446   0.0299632    -0.0332502
142   1   0.00239536   2900   -0.0606038   0.0258046    0.0290758
143   1   0.00281031   2900   0.0501077   0.0293009    -0.0391813
144   1   0.0021273   2900   0.0609377   0.0449364    0.00463493
145   1   0.00249083   2900   0.0412215   0.0148084    -0.0542711
146   1   0.00290147   2900   0.00865578   0.0352609    0.0598189
147   1   0.00226547   2900   0.01425   0.0147825    -0.0635362
148   1   0.00257898   2900   0.069377   0.0232444    -0.00676411
149   1   0.00256469   2900   -0.00614323   0.00528226    -0.0669444
150   1   0.00242633   2900   0.0466255   0.0308992    0.0383925
151   1   0.00204275   2900   0.0352835   0.0251933    0.0604232
152   1   0.00212726   2900   -0.0661036   0.0149522    0.0227732
153   1   0.00297395   2900   0.0524212   0.0302902    0.0115797
154   1   0.00250885   2900   -0.0528744   0.0183576    -0.0306919
155   1   0.00208733   2900   0.043387   0.0345579    -0.0437199
156   1   0.00240338   2900   0.0628124   0.0289765    0.0112231
157   1   0.00235051   2900   0.0635304   0.0163346    0.0289197
158   1   0.00284423   2900   0.00119262   0.0255738    -0.0575625
159   1   0.00206751   2900   0.0165464   0.0371592    -0.0531513
160   1   0.00218939   2900   0.0372429   0.0315873    -0.059139
161   1   0.00235431   2900   -0.0392035   0.0110925    -0.0504146
162   1   0.00252183   2900   0.0491094   0.0114835    0.0146638
163   1   0.00287099   2900   -0.0662064   0.0357246    0.00869427
164   1   0.00225728   2900   -0.042643   0.0283404    0.0332699
165   1   0.00201181   2900   0.00787774   0.0366148    0.0576401
166   1   0.0027009   2900   -0.0074269   0.0218473    -0.0590627
167   1   0.00223616   2900   -0.0587853   0.0413573    -0.0377455
168   1   0.00240749   2900   0.0481109   0.0439812    -0.0436696
169   1   0.00249756   2900   0.0192774   0.0267982    0.0574532
170   1   0.00211879   2900   0.0378954   0.0287926    0.0587831
171   1   0.00210728   2900   0.00601001   0.00505363    0.0633646
172   1   0.00229065   2900   0.0376008   0.0422374    -0.0439575
173   1   0.00212533   2900   0.0510272   0.00506263    -0.00143366
174   1   0.0026246   2900   0.049449   0.0207341    -0.0136461
175   1   0.0021434   2900   0.0325403   0.0260314    -0.0417125
176   1   0.00240085   2900   0.00349721   0.0380766    -0.0595791
177   1   0.00203882   2900   0.0655275   0.0361325    -0.00333779
178   1   0.0020113   2900   -0.0509388   0.0238939    -0.0195785
179   1   0.00271897   2900   -0.0518734   0.00721571    0.0383822
180   1   0.00205204   2900   0.0581851   0.00748575    0.020374
181   1   0.0024375   2900   -0.00775135   0.0325877    0.0578967
182   1   0.00203446   2900   -0.0513332   0.0199139    -0.0140185
183   1   0.00227719   2900   0.0401955   0.0112552    0.0493599
184   1   0.00227806   2900   0.0289365   0.0161457    0.0556695
185   1   0.00238047   2900   -0.0259292   0.0192493    -0.0612403
186   1   0.00282438   2900   -0.040557   0.0357066    0.0529818
187   1   0.00212865   2900   -0.0654586   0.0449357    0.00587904
188   1   0.00297886   2900   -0.053357   0.0443914    -0.0356505
189   1   0.00273505   2900   -0.00658901   0.02817    0.0598333
190   1   0.00225152   2900   0.0133573   0.0265268    -0.0566648
191   1   0.0020876   2900   0.0282243   0.0353898    0.046902
192   1   0.00243   2900   -0.0629344   0.0158496    -0.00180326
193   1   0.00271687   2900   -0.0331508   0.0241596    -0.0411805
194   1   0.0023211   2900   -0.00222614   0.0326767    0.0697915
195   1   0.00216894   2900   0.0545997   0.0063145    0.0435676
196   1   0.00201051   2900   0.0261991   0.00731423    0.0582473
197   1   0.00245238   2900   0.0443931   0.016881    -0.0375174
198   1   0.00221931   2900   -0.0494321   0.0423517    0.0409863
199   1   0.00202202   2900   0.0227337   0.0309128    0.0468353
200   1   0.00201971   2900   0.0508989   0.0194837    0.0310315
201   1   0.00211909   2900   -0.0210961   0.0321986    -0.064877
202   1   0.00233473   2900   0.0563598   0.0298586    0.0291782
203   1   0.00277257   2900   -0.0490247   0.0129866    0.0328089
204   1   0.00274408   2900   0.0278738   0.0398771    0.0546459
205   1   0.00217681   2900   -0.062646   0.0367706    0.0201619
206   1   0.00272639   2900   0.0479164   0.0402799    0.0295961
207   1   0.00276921   2900   -0.0412327   0.0233721    0.0306488
208   1   0.00210836   2900   -0.0541378   0.034823    0.0235781
209   1   0.00255213   2900   -0.0138775   0.0128227    -0.0643068
210   1   0.00230276   2900   0.0404398   0.038406    -0.0538216
211   1   0.00296395   2900   -0.0662322   0.00548193    -0.00950949
212   1   0.00209158   2900   -0.0342111   0.0120227    -0.0378919
213   1   0.0025687   2900   0.0239798   0.0259403    -0.0511019
214   1   0.00280229   2900   -0.0527166   0.0358051    -0.0338335
215   1   0.00296768   2900   0.00413492   0.0301659    -0.0610257
216   1   0.00233189   2900   -0.0132202   0.023062    0.0601199
217   1   0.00259724   2900   0.028909   0.0341788    -0.0564424
218   1   0.00227463   2900   -0.0252592   0.00513723    0.0454035
219   1   0.00285676   2900   0.0138596   0.0409083    0.0495243
220   1   0.00277072   2900   -0.0273961   0.0361619    0.0457467
221   1   0.0028567   2900   -0.0586528   0.0344349    -0.00846393
222   1   0.0023657   2900   -0.0227   0.0159566    0.0505477
223   1   0.00237617   2900   0.0591282   0.0379997    -0.0313663
224   1   0.0027213   2900   -0.0463659   0.00995247    -0.0343362
225   1   0.00263229   2900   -0.0467074   0.0130549    -0.0310416
226   1   0.00292832   2900   -0.0602023   0.0271461    -0.0305134
227   1   0.00289358   2900   -0.0524648   0.018746    -0.0258498
228   1   0.00249068   2900   -0.059146   0.0295482    -0.0341389
229   1   0.0027655   2900   0.00381318   0.0273844    0.0581841
230   1   0.0022483   2900   0.0395042   0.00767445    -0.0508455
231   1   0.00203556   2900   -0.04172   0.0411276    -0.0382808
232   1   0.00287323   2900   0.0334451   0.00543644    0.0527711
233   1   0.00290781   2900   -0.06943   0.0173753    -0.00376482
234   1   0.00284545   2900   0.0568499   0.010778    0.0385308
235   1   0.00203431   2900   -0.0481933   0.0373794    0.0206521
236   1   0.00254185   2900   -0.0664222   0.0277163    0.0186765
237   1   0.00229327   2900   -0.0267874   0.0248258    -0.0644903
238   1   0.00247784   2900   0.0616943   0.0144176    -0.00455295
239   1   0.00290772   2900   -0.0669948   0.0325666    -0.00641729
240   1   0.00223515   2900   -0.0212314   0.0418543    -0.0570853
241   1   0.00277429   2900   0.0185478   0.0275597    -0.0504589
242   1   0.00231208   2900   0.0470149   0.0113795    0.0481164
243   1   0.00258958   2900   0.00925001   0.0447046    0.0543851
244   1   0.00269901   2900   0.0547291   0.0263209    -0.00479991
245   1   0.00236588   2900   -0.057352   0.0338151    0.0212151
246   1   0.00285472   2900   -0.0534965   0.0350751    -0.0285262
247   1   0.0021162   2900   0.0578467   0.0109389    0.00514744
248   1   0.00203596   2900   -0.0507225   0.00693873    -0.0415573
249   1   0.0024286   2900   0.0615055   0.0210845    0.0186531
250   1   0.00259606   2900   0.0414038   0.0258081    -0.0539281
251   1   0.00251726   2900   -0.0218874   0.0101055    0.0525252
252   1   0.00207608   2900   0.0491592   0.0361849    0.0476539
253   1   0.00213565   2900   0.0390518   0.018478    0.0329037
254   1   0.00216321   2900   -0.0124683   0.0325299    -0.0667037
255   1   0.00268442   2900   0.00963858   0.0225081    0.0623972
256   1   0.00212583   2900   0.0326868   0.0345283    -0.0563508
257   1   0.00243535   2900   -0.052359   0.0132613    0.01832
258   1   0.0029967   2900   -0.010552   0.0430609    -0.0573426
259   1   0.00241025   2900   -0.00663106   0.0227428    -0.0653131
260   1   0.00207663   2900   -0.000316317   0.0426629    0.0595507
261   1   0.00212675   2900   -0.0122718   0.0283748    0.0688226
262   1   0.00228491   2900   0.052336   0.0346827    -0.00767151
263   1   0.00279012   2900   -0.066247   0.0322281    0.0141516
264   1   0.00267807   2900   -0.0317825   0.0230465    -0.0447835
265   1   0.00271744   2900   0.0341073   0.0394915    -0.0564459
266   1   0.00207421   2900   -0.0482129   0.0197028    -0.0506756
267   1   0.00277854   2900   -0.0485637   0.0179623    -0.0235543
268   1   0.00238   2900   0.00849367   0.00978438    0.0692866
269   1   0.00296424   2900   -0.0577916   0.0164592    0.036825
270   1   0.00287705   2900   -0.00675997   0.0361884    0.06006
271   1   0.00213995   2900   -0.0531334   0.0425528    0.0281543
272   1   0.00222125   2900   0.0677894   0.024128    0.0169214
273   1   0.00275905   2900   0.00304352   0.027501    0.0525844
274   1   0.00229655   2900   0.0244416   0.0384367    -0.0630489
275   1   0.00219641   2900   -0.0236903   0.0361018    -0.0562239
276   1   0.00206139   2900   -0.0533438   0.0165295    -0.0294045
277   1   0.00225546   2900   0.0378165   0.0101069    0.0531878
278   1   0.00262944   2900   -0.0677419   0.0235979    0.00156335
279   1   0.00200951   2900   -0.00635832   0.00627421    0.0567637
280   1   0.00286152   2900   -0.00788958   0.00815413    0.056993
281   1   0.00260436   2900   -0.0157666   0.0303735    0.0658379
282   1   0.00269895   2900   0.0314412   0.0403065    -0.0544597
283   1   0.00248731   2900   -0.0249859   0.0145709    -0.0501113
284   1   0.00254896   2900   0.0448169   0.00821143    0.0420678
285   1   0.00210156   2900   0.0389421   0.0342742    -0.0523347
286   1   0.00216082   2900   -0.00151181   0.0350654    0.0533667
287   1   0.00288856   2900   -0.0232332   0.00544428    0.0469833
288   1   0.00258444   2900   -0.0538591   0.0410441    -0.0144054
289   1   0.00223312   2900   -0.0613045   0.0448753    -0.0280431
290   1   0.00258016   2900   -0.0301897   0.0200833    0.045664
291   1   0.00277632   2900   -0.0686121   0.0446121    0.0116338
292   1   0.00234356   2900   -0.011515   0.0282896    -0.0498565
293   1   0.00221742   2900   -0.00845807   0.00612713    -0.0665968
294   1   0.0023031   2900   0.0475918   0.0404905    0.0383879
295   1   0.00244143   2900   -0.0327778   0.0340286    -0.0418673
296   1   0.00222202   2900   -0.0379483   0.0139909    0.0433012
297   1   0.00292767   2900   -0.000428609   0.00630862    -0.0577711
298   1   0.00258593   2900   -0.00355619   0.0265519    0.0604094
299   1   0.00228173   2900   0.0605808   0.0319602    0.0305794
300   1   0.00204043   2900   -0.0366249   0.0334959    -0.0509253
301   1   0.00236583   2900   -0.0497439   0.0447646    -0.039556
302   1   0.00263597   2900   0.0371548   0.0272935    -0.0353814
303   1   0.00247648   2900   -0.0173805   0.0294315    -0.0567422
304   1   0.00235345   2900   -0.0465184   0.0187832    -0.0494458
305   1   0.0028798   2900   0.0249501   0.0108388    -0.0649198
306   1   0.00269874   2900   -0.0571253   0.0360177    -0.0108186
307   1   0.00270554   2900   0.0437653   0.0277743    -0.0404619
308   1   0.00283436   2900   0.0285002   0.0278483    -0.0452195
309   1   0.00259083   2900   -0.0391811   0.0367059    -0.042531
310   1   0.00299674   2900   -0.0151765   0.0135565    0.0491969
311   1   0.00275181   2900   0.0111905   0.0185584    0.050137
312   1   0.00210856   2900   -0.0370504   0.042491    0.0551325
313   1   0.00233669   2900   -0.0634888   0.0292025    0.0290284
314   1   0.00210716   2900   0.0456402   0.0197337    0.0426252
315   1   0.00286974   2900   0.0552183   0.0185442    0.0302361
316   1   0.00201193   2900   0.061844   0.0333958    -0.0132971
317   1   0.00208312   2900   -0.0431101   0.0210668    0.0395138
318   1   0.00255274   2900   0.0619814   0.0332309    0.00966137
319   1   0.00207346   2900   0.0595927   0.0143638    0.0215671
320   1   0.00296037   2900   0.0609722   0.0307494    0.000653985
321   1   0.00262285   2900   -0.00237103   0.0408712    -0.0512414
322   1   0.00240952   2900   -0.0594882   0.0423725    -0.0020769
323   1   0.00298873   2900   0.0566057   0.0307608    -0.021596
324   1   0.00216882   2900   -0.0492732   0.0356799    0.0212518
325   1   0.00272677   2900   -0.026961   0.0417324    -0.0641818
326   1   0.00277092   2900   0.0625742   0.0289173    0.0195784
327   1   0.00222046   2900   -0.0152175   0.0222389    -0.0597191
328   1   0.00254768   2900   0.0368165   0.0447262    0.043921
329   1   0.00234833   2900   0.0160362   0.0403335    -0.0498596
330   1   0.00251556   2900   0.0320575   0.0320355    0.061684
331   1   0.00203582   2900   0.045424   0.0316094    0.0419638
332   1   0.00248305   2900   -0.0475908   0.0264932    -0.0225271
333   1   0.00234866   2900   0.0622851   0.0345195    0.00559291
334   1   0.00297848   2900   0.0586561   0.0155777    0.00960858
335   1   0.00242236   2900   0.0349337   0.010784    0.0604082
336   1   0.00216671   2900   -0.0496058   0.0285734    -0.0301092
337   1   0.00297738   2900   -0.00598254   0.0349283    0.0574682
338   1   0.00280756   2900   -0.0190688   0.0393974    0.052181
339   1   0.00269047   2900   -0.0401328   0.0446548    0.0376196
340   1   0.00249291   2900   -0.0336864   0.0367499    -0.0536845
341   1   0.00241442   2900   -0.050209   0.00768522    0.0403743
342   1   0.0025246   2900   0.0614333   0.00531131    0.020564
343   1   0.00271121   2900   0.0568366   0.020636    -0.0119702
344   1   0.0021738   2900   -0.024668   0.0202303    -0.0462765
345   1   0.00291052   2900   -0.0424662   0.0176278    0.0429774
346   1   0.00223278   2900   -0.0401386   0.0135753    -0.0317853
347   1   0.0022579   2900   -0.0575289   0.00512893    -0.0217567
348   1   0.00244593   2900   -0.03726   0.02786    -0.0525539
349   1   0.00255837   2900   -0.039459   0.00788844    0.0417542
350   1   0.00233944   2900   -0.0439257   0.017779    -0.0262271
351   1   0.00290579   2900   -0.0422391   0.0313043    0.0516345
352   1   0.00229416   2900   0.0534299   0.0430305    -0.0253591
353   1   0.00253313   2900   0.0293468   0.0144944    -0.052785
354   1   0.00236798   2900   0.0445283   0.0109177    -0.0350589
355   1   0.00208374   2900   0.0456026   0.0078579    0.0342229
356   1   0.00229594   2900   0.0527788   0.014171    -0.0457277
357   1   0.00214088   2900   -0.0653549   0.00692212    0.0085122
358   1   0.00256146   2900   0.0476833   0.0365433    0.0458729
359   1   0.00200939   2900   -0.0194388   0.0423486    -0.0619018
360   1   0.00299188   2900   0.0186355   0.0445031    0.0650506
361   1   0.00280973   2900   -0.0651106   0.0224585    -0.0245342
362   1   0.00214919   2900   -0.0259782   0.0381842    0.050088
363   1   0.00251602   2900   -0.0550405   0.036646    0.017172
364   1   0.00280934   2900   -0.0293388   0.025203    -0.0449838
365   1   0.00208534   2900   -0.0527791   0.0422473    0.00354389
366   1   0.00299782   2900   0.0271333   0.028844    0.0614476
367   1   0.00294552   2900   0.0511504   0.00783833    0.0401491
368   1   0.00217368   2900   0.0180856   0.017673    -0.0638607
369   1   0.00256789   2900   0.0049717   0.0236074    -0.0519438
370   1   0.00226152   2900   0.0388341   0.0176337    0.0494056
371   1   0.00225416   2900   -0.0492575   0.0197039    0.0136429
372   1   0.00298556   2900   0.0564536   0.0283697    -0.0142213
373   1   0.0020762   2900   -0.0590484   0.0403793    0.0374857
374   1   0.0026795   2900   -0.0174262   0.0423647    -0.057463
375   1   0.00247962   2900   0.0505948   0.0154611    0.0288771
376   1   0.00227368   2900   -0.0581564   0.00513679    0.00345835
377   1   0.00295344   2900   0.0637499   0.00708974    -0.00771288
378   1   0.00226381   2900   0.0355939   0.0428123    0.0447158
379   1   0.00256904   2900   -0.0436041   0.0073744    0.0454778
380   1   0.00229317   2900   -0.0516928   0.0303958    0.0232138
381   1   0.00285603   2900   0.0617506   0.030266    0.0132536
382   1   0.00240035   2900   -0.0133174   0.00519957    -0.068497
383   1   0.002969   2900   -0.0556544   0.0363137    -0.0416374
384   1   0.00294055   2900   0.0178189   0.0139106    0.056484
385   1   0.00216921   2900   -0.0520448   0.0239072    -0.0414347
386   1   0.0026918   2900   -0.0551819   0.0406676    0.0237577
387   1   0.00214399   2900   0.0270675   0.0179288    0.0453444
388   1   0.00263297   2900   0.0642495   0.039051    0.0132304
389   1   0.00240657   2900   -0.0031322   0.0151495    -0.0657356
390   1   0.00277902   2900   0.0164504   0.00974086    0.0609024
391   1   0.00275456   2900   -0.00751643   0.036354    0.0656829
392   1   0.00238929   2900   0.050531   0.00822506    0.0275059
393   1   0.00249424   2900   -0.0536723   0.0052471    0.0394615
394   1   0.00213488   2900   -0.0646554   0.0260305    -0.0139316
395   1   0.00201236   2900   0.0567299   0.0431632    0.0364417
396   1   0.00293453   2900   -0.0665007   0.00546716    0.0041344
397   1   0.00229875   2900   0.0496125   0.0351775    -0.0124276
398   1   0.00225758   2900   -0.0641928   0.00943383    -0.00807774
399   1   0.00253348   2900   0.0184591   0.00705998    0.0526685
400   1   0.00223941   2900   -0.0542251   0.02722    0.00528758
401   1   0.00299771   2900   -0.0496623   0.00549846    0.037813
402   1   0.00211575   2900   0.0464458   0.00801607    0.0404109
403   1   0.00290284   2900   -0.0460261   0.00786491    0.0331175
404   1   0.00227404   2900   0.0515782   0.0347704    0.00489802
405   1   0.00205978   2900   -0.0511851   0.0226007    -0.0152655
406   1   0.00215611   2900   0.0270349   0.00507805    0.050346
407   1   0.00219971   2900   0.0291581   0.0249292    0.0479598
408   1   0.00257019   2900   -0.0030383   0.00674764    -0.0657085
409   1   0.00217246   2900   -0.0282864   0.044899    0.0589915
410   1   0.00284741   2900   -0.00405791   0.0444352    -0.0621985
411   1   0.00299759   2900   -0.0501185   0.0246632    0.0238651
412   1   0.00223038   2900   0.0115477   0.0253361    -0.0524241
413   1   0.00224553   2900   -0.0131356   0.0172556    -0.0531963
414   1   0.00278978   2900   0.037704   0.016362    0.0558774
415   1   0.00279135   2900   -0.00926319   0.0198679    -0.0662371
416   1   0.00282309   2900   -0.0409401   0.0197625    0.0512708
417   1   0.00245953   2900   0.0193337   0.0159996    0.0523794
418   1   0.00237333   2900   0.0465305   0.0351571    -0.0374359
419   1   0.00256757   2900   0.0271058   0.0171982    0.0501117
420   1   0.00299115   2900   0.0634202   0.0161166    -0.00657422
421   1   0.00264915   2900   -0.0558015   0.0241798    0.0310092
422   1   0.00262673   2900   0.0556911   0.0261759    0.0234669
423   1   0.00245689   2900   -0.0381749   0.0144123    0.0506154
424   1   0.00242746   2900   0.0182297   0.0369873    0.047849
425   1   0.00237596   2900   0.0115587   0.0192703    -0.0688336
426   1   0.00263582   2900   0.00296197   0.0251184    -0.0640519
427   1   0.0022865   2900   0.0264573   0.0249714    -0.0547835
428   1   0.00201575   2900   0.0503604   0.0308644    0.034554
429   1   0.00292802   2900   -0.058824   0.0102102    -0.0231401
430   1   0.00265401   2900   0.0677655   0.0175848    -0.00455215
431   1   0.00298674   2900   -0.0452962   0.043373    0.0305982
432   1   0.00222533   2900   -0.0172428   0.0163128    -0.0502439
433   1   0.00217871   2900   -0.00429802   0.0107972    -0.060812
434   1   0.0021138   2900   0.0547245   0.026007    -0.0434999
435   1   0.00218045   2900   -0.00894414   0.0301262    0.0503019
436   1   0.00233984   2900   -0.0634598   0.0388408    -0.0097449
437   1   0.00297103   2900   0.0374058   0.0183317    0.0462562
438   1   0.00239998   2900   -0.0131498   0.0444079    -0.0675666
439   1   0.00233787   2900   0.0422247   0.0286229    -0.0498498
440   1   0.00216127   2900   0.0273514   0.00508053    0.0524807
441   1   0.00223196   2900   -0.0538895   0.00704207    0.0310912
442   1   0.00299928   2900   0.0502297   0.0289113    0.019784
443   1   0.0026067   2900   -0.00961025   0.0356948    -0.0503825
444   1   0.00295796   2900   0.0343031   0.00547896    -0.0483897
445   1   0.00266553   2900   0.041778   0.0371706    0.0434909
446   1   0.0027798   2900   -0.00709464   0.028872    0.0642986
447   1   0.00222386   2900   -0.0398116   0.0288837    0.0451475
448   1   0.00259433   2900   0.0667518   0.0344352    0.0167026
449   1   0.00220314   2900   -0.00397535   0.0408846    -0.056637
450   1   0.00222793   2900   -0.0558326   0.0307472    0.00246377
451   1   0.00292673   2900   -0.0172333   0.00750688    -0.067345
452   1   0.0029948   2900   -0.0507606   0.0320302    -0.00859971
453   1   0.00280159   2900   0.0448998   0.0154521    -0.0494626
454   1   0.00205869   2900   0.052184   0.0128403    0.0191581
455   1   0.00208604   2900   0.0441268   0.00767791    0.0296226